<?xml version="1.0" encoding="UTF-8"?>

<configuration xmlns:xsi="http://www.w3.org/2001/XMLSchema-instance" xsi:noNamespaceSchemaLocation="http://sumo.dlr.de/xsd/sumoConfiguration.xsd">

    <input>
        <net-file value="test.net.xml"/>
        <route-files value="classified_edges.rou.xml"/>
        <additional-files value="map.poly.xml"/>
    </input>

<output>
	<vehroute-output value="outputfile.xml"/>
	<vehroute-output.exit-times value="true"/>
</output>

    <time>
        <begin value="0"/>
        <end value="864000"/>
    </time>

</configuration>
